3
CO2    Gibbs Free energy (298.15 K) = -188.534951 Ha
C          0.00000        0.00000        0.00000
O          0.00000        0.00000        1.16427
O          0.00000        0.00000       -1.16427
