4
CO3_2minus    Gibbs Free energy (298.15 K) = -264.006231 Ha
O          1.10932       -0.67245       -0.00002
C          0.00000       -0.00082       -0.00002
O          0.02863        1.29634       -0.00002
O         -1.13794       -0.62318       -0.00002
