5
CO4_2minus    Gibbs Free energy (298.15 K) = -339.115691 Ha
O          0.60298       -0.70003       -0.00000
O          1.87080        0.01586        0.00000
C         -0.53932        0.05565       -0.00000
O         -1.58191       -0.66518        0.00000
O         -0.48738        1.30762       -0.00000
