3
H2O    Gibbs Free energy (298.15 K) = -76.399584 Ha
O         -0.00000        0.00000        0.11790
H         -0.00000        0.76887       -0.47162
H         -0.00000       -0.76887       -0.47162
