2
O2    Gibbs Free energy (298.15 K) = -150.298284 Ha
O          0.00000        0.00000        0.60273
O          0.00000        0.00000       -0.60273
