2
O2_1minus    Gibbs Free energy (298.15 K) = -150.433885 Ha
O          0.00000        0.00000        0.66645
O          0.00000        0.00000       -0.66645
