2
O2_2minus    Gibbs Free energy (298.15 K) = -150.503093 Ha
O          0.00000        0.00000        0.75970
O          0.00000        0.00000       -0.75970
