12
Hf_int4_prime    Gibbs Free energy (298.15 K) = -839.511688 Ha
O          1.77731        1.19541        0.40743
O         -1.10280        0.66538        2.33074
O          1.27257       -1.81453        0.20342
O         -1.57234       -0.35371       -1.46537
O         -0.23474       -0.46311        2.08625
O         -1.20952        1.29731        1.03714
O          1.31929       -1.33170       -1.20779
O         -1.68611       -1.42075       -0.42749
Hf        -0.02693       -0.20304       -0.07059
C          1.54205        1.95532       -0.62256
O          2.23199        2.96932       -0.91863
O          0.50810        1.56883       -1.33408
