12
Zr_int4_prime    Gibbs Free energy (298.15 K) = -837.157762 Ha
O          1.72622        1.11866        0.38445
O         -1.20889        0.57905        2.36273
O          1.18223       -1.95345        0.25131
O         -1.67452       -0.49475       -1.46661
O         -0.34193       -0.55321        2.13359
O         -1.29750        1.21918        1.07284
O          1.24740       -1.50767       -1.16422
O         -1.80673       -1.53897       -0.41734
Zr        -0.11649       -0.31830       -0.05312
C          1.47442        1.85233       -0.65970
O          2.15652        2.86457       -0.98323
O          0.43769        1.44978       -1.35902
