12
Hf_ts4_prime    Gibbs Free energy (298.15 K) = -839.491626 Ha
O          1.83148        1.15376        0.36830
O         -1.42688        0.39474        1.66985
O          1.38200       -1.83540        0.16714
O         -1.63944       -0.34423       -1.24911
O         -0.22628       -0.33898        2.07233
O         -1.11397        1.78450        1.55909
O          1.33040       -1.32022       -1.23564
O         -1.54031       -1.57398       -0.41015
Hf         0.03674       -0.25533       -0.03150
C          1.53205        1.92349       -0.63757
O          2.20211        2.93551       -0.97376
O          0.45098        1.54084       -1.28050
