10
MoO5CO3    Gibbs Free energy (298.15 K) = -707.473057 Ha
O          1.85363        3.18936        0.75983
O         -1.82352        1.57499       -0.22318
O          0.06069        0.65090       -3.08168
O         -0.63877       -0.94566       -0.77438
O         -2.09497        1.40408       -1.62519
O          1.26443        0.49337       -2.31080
Mo        -0.35094        0.67882       -1.18803
C          1.12168        2.48364        0.04881
O          0.51221        2.83364       -1.03200
O          0.87983        1.19374        0.36435
