10
NbO5CO3    Gibbs Free energy (298.15 K) = -696.491185 Ha
O          1.91114        3.21535        0.82261
O         -1.93253        1.58736       -0.23407
O          0.03844        0.59711       -3.17049
O         -0.63638       -1.01192       -0.73172
O         -2.18460        1.38872       -1.66795
O          1.28781        0.46204       -2.40941
Nb        -0.36556        0.68053       -1.20771
C          1.16756        2.50544        0.10171
O          0.57759        2.89968       -0.97597
O          0.92082        1.23256        0.41073
