10
TaO5CO3    Gibbs Free energy (298.15 K) = -698.038721 Ha
O          1.89423        3.21887        0.79132
O         -1.90469        1.57701       -0.20504
O          0.03618        0.62699       -3.15723
O         -0.63475       -1.00039       -0.74080
O         -2.16729        1.40332       -1.65425
O          1.29103        0.45326       -2.38628
Ta        -0.35647        0.70197       -1.20571
C          1.15704        2.49426        0.08748
O          0.55094        2.86194       -0.99508
O          0.91807        1.21964        0.40330
