10
TiO5CO3    Gibbs Free energy (298.15 K) = -698.357240 Ha
O          1.92940        2.93989        1.29904
O         -1.85014        1.66305       -0.52652
O         -0.22454        0.13321       -3.23392
O         -0.48569       -1.01347       -0.54195
O         -2.35476        0.94569       -1.70371
O          1.01005        0.60325       -2.59387
Ti        -0.46999        0.51377       -1.31235
C          1.28985        2.69333        0.20834
O          1.10203        3.60134       -0.67947
O          0.83806        1.47680        0.02211
