12
Cr_ts3    Gibbs Free energy (298.15 K) = -876.298031 Ha
O          2.29773        0.81720        0.09059
O         -0.97584       -0.58780        1.54706
O          0.75050       -2.16445        0.13168
O         -1.39512       -0.23482       -1.40736
O         -0.03385        0.40257        1.18476
O         -2.21894       -0.16165        1.55444
O          1.24792       -1.53733       -1.00360
O         -1.53720       -1.47083       -0.81612
Cr        -0.01481       -0.51501       -0.35947
C          1.83325        1.40071       -0.92834
O          2.34074        2.35043       -1.56762
O          0.63161        0.93986       -1.38147
