12
Ta_ts3    Gibbs Free energy (298.15 K) = -848.247110 Ha
O          2.32986        1.08014        0.17902
O         -1.01610       -0.07719        1.95623
O          0.91158       -1.86389        0.38045
O         -1.46105       -0.20631       -1.53974
O          0.34044        0.44970        1.91437
O         -1.71336        0.84081        1.08740
O          1.07919       -1.40203       -1.02124
O         -1.68353       -1.31101       -0.59200
Ta        -0.15225       -0.22897       -0.00900
C          1.70573        1.88078       -0.58288
O          2.13013        2.98018       -1.02584
O          0.46189        1.48579       -0.93940
