12
V_ts3    Gibbs Free energy (298.15 K) = -861.621673 Ha
O          2.00660        0.87295        0.29810
O         -1.28246       -0.32573        1.82351
O          0.81610       -1.96475        0.31030
O         -1.59635       -0.15776       -1.10329
O         -0.11374        0.45482        1.54553
O         -2.42542        0.46888        1.88841
O          1.11955       -1.38214       -0.95870
O         -1.54368       -1.47087       -0.59379
V         -0.11337       -0.37208       -0.08683
C          1.59565        1.57061       -0.68674
O          2.19388        2.54243       -1.21507
O          0.40494        1.18899       -1.16357
