12
W_ts3    Gibbs Free energy (298.15 K) = -857.993983 Ha
O          2.46367        1.20819        0.24205
O         -0.91255       -0.11360        1.92256
O          0.66945       -1.96970        0.41935
O         -1.45368       -0.15471       -1.49313
O          0.42400        0.45259        1.75450
O         -1.69120        0.77197        1.10110
O          1.10815       -1.34607       -0.84036
O         -1.70937       -1.30043       -0.62996
W         -0.21614       -0.28014       -0.00200
C          1.74081        1.86607       -0.53995
O          1.95627        2.97297       -1.07383
O          0.51294        1.29023       -0.88188
