5
TaO4    Gibbs Free energy (298.15 K) = -359.201457 Ha
Ta         1.96126        2.17054        5.13894
O          3.07985        1.16348        4.04326
O          0.90206        3.28725        4.09242
O          0.87157        1.03201        6.12976
O          2.99196        3.20112        6.29535
