12
Cr_int4    Gibbs Free energy (298.15 K) = -876.309873 Ha
O          1.92795        0.51028        0.02395
O         -1.16503       -0.44091        1.50989
O          1.11744       -2.02671       -0.02251
O         -1.36476       -0.39210       -1.19551
O          0.01976        0.25923        1.38042
O         -2.23400        0.31323        1.40463
O          1.22404       -1.55112       -1.32380
O         -1.33203       -1.65183       -0.70384
Cr         0.15797       -0.46511       -0.31180
C          1.68046        1.34958       -0.93472
O          2.39709        2.27773       -1.31523
O          0.49710        1.05659       -1.46693
