12
Hf_int4    Gibbs Free energy (298.15 K) = -839.496452 Ha
O          1.80608        1.12073        0.34931
O         -1.32652        0.70616        1.49845
O          1.39486       -1.88002        0.20030
O         -1.58362       -0.43994       -1.36255
O         -0.32549       -0.25927        1.98275
O         -1.10444        2.00334        2.02742
O          1.37947       -1.41177       -1.22318
O         -1.55910       -1.59151       -0.41221
Hf         0.05396       -0.31717       -0.09626
C          1.45674        1.94020       -0.59951
O          2.08689        2.98253       -0.90423
O          0.35933        1.55927       -1.22497
