12
Ta_int4    Gibbs Free energy (298.15 K) = -848.258781 Ha
O          1.73155        1.00849        0.34914
O         -1.23993        0.69381        1.39138
O          1.36655       -1.83895        0.17710
O         -1.51785       -0.47338       -1.28412
O         -0.25587       -0.31728        1.87296
O         -0.92454        1.98384        1.83234
O          1.31458       -1.35466       -1.22709
O         -1.43159       -1.61302       -0.34741
Ta         0.07271       -0.33716       -0.10458
C          1.38312        1.86560       -0.57579
O          1.96691        2.92201       -0.84421
O          0.29521        1.43655       -1.21099
