12
Ti_int4    Gibbs Free energy (298.15 K) = -848.598157 Ha
O          1.69409        0.93133        0.43211
O         -0.86255        0.46038        2.39125
O          0.52717       -1.87920        0.53003
O         -1.42811       -0.17543       -1.85753
O         -1.13888        0.54277        0.98131
O         -1.89210       -0.28729        3.03153
O          1.14160       -1.63256       -0.77600
O         -1.67930       -1.36058       -1.05150
Ti        -0.17285       -0.31963       -0.43581
C          1.66643        1.59298       -0.66767
O          2.45924        2.52813       -0.97493
O          0.70368        1.21319       -1.49490
