12
Ta_ts2    Gibbs Free energy (298.15 K) = -848.223517 Ha
O          2.15003        1.15360        0.36643
O         -0.85092       -0.52647        1.71182
O          0.63582       -2.41133        0.10362
O         -1.57270       -0.50419       -1.76681
O          0.75027        0.22307        1.28227
O         -1.66810        0.39489        0.96526
O          1.14740       -1.73050       -1.11249
O         -1.84394       -1.69160       -0.92806
Ta        -0.27931       -0.65758       -0.25091
C          1.67039        1.55248       -0.76754
O          2.21461        2.45773       -1.44328
O          0.56754        0.96894       -1.21879
