12
Ti_ts2    Gibbs Free energy (298.15 K) = -848.548151 Ha
O          2.09590        1.21824        0.40290
O         -0.85598       -0.59439        1.64837
O          0.63712       -2.40823        0.10637
O         -1.54083       -0.50830       -1.74046
O          0.77499        0.24350        1.21065
O         -1.71387        0.37905        1.04832
O          1.09700       -1.70225       -1.08725
O         -1.82948       -1.67497       -0.91461
Ti        -0.28829       -0.67697       -0.24157
C          1.65902        1.54925       -0.78595
O          2.29937        2.41396       -1.46294
O          0.58614        0.99016       -1.24228
