12
V_ts2    Gibbs Free energy (298.15 K) = -861.595074 Ha
O          2.12646        1.09465        0.35984
O         -0.86647       -0.59398        1.54292
O          0.61566       -2.34456        0.09191
O         -1.48721       -0.49068       -1.66536
O          0.73251        0.13141        1.16955
O         -1.64666        0.40816        0.96822
O          1.05704       -1.59229       -1.03144
O         -1.70437       -1.62540       -0.84120
V         -0.24876       -0.63870       -0.24809
C          1.62860        1.50708       -0.76670
O          2.17663        2.43642       -1.42070
O          0.53768        0.93693       -1.21743
