12
W_ts2    Gibbs Free energy (298.15 K) = -857.982347 Ha
O          2.17699        1.07398        0.32994
O         -0.86168       -0.51970        1.64932
O          0.62268       -2.36512        0.08927
O         -1.52276       -0.48369       -1.71239
O          0.68351        0.15303        1.28395
O         -1.62812        0.41000        0.89968
O          1.13478       -1.65201       -1.08694
O         -1.76564       -1.65055       -0.87017
W         -0.24599       -0.63866       -0.25526
C          1.66869        1.52419       -0.75389
O          2.12900        2.45388       -1.43642
O          0.52962        0.92372       -1.19558
