12
Hf_ts1    Gibbs Free energy (298.15 K) = -839.471083 Ha
O         -2.29276        0.89109        0.81635
O          1.93122       -0.09731        1.63358
O          1.16325        1.74827       -0.42008
O          0.45999       -1.78370       -1.25350
O         -1.11950        0.26099        1.35578
O          1.13078       -1.35811        1.74958
O          0.00161        1.33300       -1.26869
O          1.83933       -1.18856       -1.26191
Hf         0.58841       -0.17427        0.07202
C         -2.88693        0.18247       -0.21524
O         -3.94316        0.73765       -0.61594
O         -2.34557       -0.86636       -0.61646
