12
Mo_ts1    Gibbs Free energy (298.15 K) = -857.658061 Ha
O         -2.15550        0.73441        0.70975
O          2.06651       -0.24709        1.35541
O          1.40474        1.53295       -0.37959
O          0.81521       -1.84687       -0.63944
O         -1.07305       -0.02833        1.20193
O          1.06638       -1.12763        1.86000
O         -0.00025        1.59028       -0.63653
O          0.67003       -0.79597       -1.62261
Mo         0.56971       -0.12606        0.17940
C         -2.79006        0.12129       -0.42338
O         -3.82717        0.73677       -0.71507
O         -2.21985       -0.85857       -0.91437
