12
Nb_ts1    Gibbs Free energy (298.15 K) = -846.693304 Ha
O         -2.22453        0.81613        0.85011
O          1.97710       -0.06812        1.46624
O          1.08315        1.65379       -0.43493
O          0.43479       -1.68447       -1.23767
O         -1.07649        0.10941        1.33409
O          1.07371       -1.18396        1.75818
O         -0.13524        1.25269       -1.15658
O          1.82945       -1.21073       -1.10916
Nb         0.55481       -0.18775        0.07204
C         -2.82938        0.20025       -0.24788
O         -3.87516        0.79863       -0.58994
O         -2.28553       -0.81069       -0.72901
