12
Ta_ts1    Gibbs Free energy (298.15 K) = -848.243168 Ha
O         -2.19955        0.84300        0.84048
O          1.89780       -0.03713        1.51525
O          1.03656        1.66580       -0.40882
O          0.44406       -1.73230       -1.16498
O         -1.05396        0.13741        1.32707
O          1.10069       -1.27466        1.69173
O         -0.12868        1.19305       -1.19733
O          1.80103       -1.11182       -1.16578
Ta         0.55110       -0.18298        0.08355
C         -2.80827        0.20419       -0.24573
O         -3.85465        0.79419       -0.59481
O         -2.25944       -0.81356       -0.70514
