10
TiO5CO3    Gibbs Free energy (298.15 K) = -698.356959 Ha
O          2.11001        1.96206        0.57578
O          0.20473       -2.37908       -0.05164
O         -1.56336        0.06195       -1.84273
O         -1.06897       -0.00209        1.13331
O          1.30301       -1.41104       -0.14450
O         -1.94944       -1.27239       -1.37095
Ti        -0.42614       -0.52819       -0.36217
C          1.83315        1.74245       -0.65775
O          2.60909        2.14145       -1.60324
O          0.72099        1.12586       -0.99101
