12
Hf_int3    Gibbs Free energy (298.15 K) = -839.492582 Ha
O          2.93221        1.61502       -0.22822
O         -0.99042        0.01272        2.03701
O          0.42916       -2.22136        0.54934
O         -1.44983       -0.13149       -1.71898
O          0.40713        0.39419        1.94043
O         -1.69015        0.94941        1.17521
O          1.14985       -1.68849       -0.65274
O         -1.91790       -1.26817       -0.87219
Hf        -0.27051       -0.33820       -0.02945
C          1.81070        2.10270       -0.58907
O          1.60234        3.35671       -0.70823
O          0.80629        1.28167       -0.88463
