12
Mo_int3    Gibbs Free energy (298.15 K) = -857.634273 Ha
O          2.45184        1.23044        0.23760
O         -1.00113       -0.23462        1.90315
O          0.50146       -2.17287        0.34614
O         -1.56873       -0.18285       -1.46562
O          0.33768        0.30366        1.74173
O         -1.78346        0.69611        1.16816
O          1.14968       -1.38127       -0.66471
O         -1.78870       -1.39373       -0.72854
Mo        -0.30757       -0.39455       -0.01141
C          1.68824        1.79784       -0.57294
O          1.84348        2.89189       -1.16299
O          0.49383        1.15684       -0.89957
