12
Ti_int3    Gibbs Free energy (298.15 K) = -848.598107 Ha
O          2.50642        1.56624        0.30568
O         -1.26642       -0.56051        1.94034
O          0.49729       -2.14929        0.38428
O         -1.69274        0.07104       -1.29143
O         -0.26717        0.44703        1.62904
O         -2.52796        0.04185        2.15917
O          1.18227       -1.39633       -0.66178
O         -1.82209       -1.32195       -0.87868
Ti        -0.31153       -0.42243       -0.07944
C          1.83192        1.72683       -0.76459
O          2.27665        2.39240       -1.76639
O          0.61176        1.21921       -0.86832
