12
V_int3    Gibbs Free energy (298.15 K) = -861.631573 Ha
O          2.42862        1.32316        0.31055
O         -1.16039       -0.50519        1.81288
O          0.42916       -2.14245        0.38084
O         -1.58847       -0.01883       -1.26651
O         -0.11169        0.44604        1.49007
O         -2.38425        0.12786        1.92782
O          1.11894       -1.37769       -0.59830
O         -1.78743       -1.32440       -0.74654
V         -0.28932       -0.43019       -0.08006
C          1.75022        1.67170       -0.69721
O          2.09466        2.57213       -1.52683
O          0.56167        1.08319       -0.94886
