12
W_int3    Gibbs Free energy (298.15 K) = -857.995694 Ha
O          2.48737        1.24452        0.24236
O         -0.90564       -0.11752        1.92188
O          0.62642       -1.99923        0.41772
O         -1.45795       -0.14062       -1.49276
O          0.43563        0.43540        1.74608
O         -1.68359        0.77736        1.10844
O          1.12661       -1.34549       -0.80158
O         -1.71844       -1.30127       -0.64999
W         -0.22490       -0.28740       -0.00539
C          1.74599        1.87628       -0.54192
O          1.93105        2.98462       -1.08563
O          0.52980        1.27072       -0.88076
