9
TiO8    Gibbs Free energy (298.15 K) = -660.009108 Ha
O         -1.47265       -0.04766        0.45171
O          1.75508       -0.60829        1.60507
O          1.54361        1.63184        0.01167
O          0.17778       -1.21151       -1.41966
O         -0.79684        0.75594        1.47522
O          0.74509       -1.64875        1.39613
O          0.44214        1.63695       -0.95766
O          1.61993       -0.99073       -1.27989
Ti         0.50170       -0.05918        0.16108
