9
VO8    Gibbs Free energy (298.15 K) = -673.082812 Ha
O         -1.38883       -0.02663        0.44131
O          1.68931       -0.60127        1.55763
O          1.49786        1.56808       -0.00133
O          0.21365       -1.18167       -1.36284
O         -0.68421        0.73574        1.43103
O          0.68237       -1.58891        1.29773
O          0.39683        1.51309       -0.91953
O          1.60603       -0.89978       -1.15958
V          0.50282       -0.06003        0.15923
