9
WO8    Gibbs Free energy (298.15 K) = -669.500917 Ha
O         -1.43498       -0.04019        0.45513
O          1.73445       -0.60366        1.58108
O          1.51794        1.60682        0.00456
O          0.18846       -1.20279       -1.39825
O         -0.72385        0.75250        1.46789
O          0.71180       -1.62828        1.32945
O          0.40137        1.56158       -0.94994
O          1.61936       -0.92764       -1.20675
W          0.50130       -0.05973        0.16048
