12
Cr_int1    Gibbs Free energy (298.15 K) = -876.327343 Ha
O         -1.67912        0.79285       -0.20280
O          1.77497       -0.34446        1.67217
O          1.85539        1.53567        0.09284
O          0.18880       -0.97093       -1.34424
O         -0.64196        0.58421        0.70450
O          1.10650       -1.46558        1.15774
O          0.99176        1.76014       -0.93244
O          1.52544       -0.68430       -1.34543
Cr         0.94369        0.03838        0.12585
C         -2.74068       -0.19180       -0.10185
O         -3.61386        0.08446       -0.93844
O         -2.63126       -1.07943        0.74508
