12
Hf_int1    Gibbs Free energy (298.15 K) = -839.480375 Ha
O         -2.28848        0.49865       -0.33391
O          1.97630       -0.31140        1.67428
O          1.55076        1.90017       -0.12413
O          0.34981       -1.36241       -1.46701
O         -1.37193       -0.02173        0.64926
O          0.79041       -1.22430        1.74016
O          0.35512        1.78539       -1.02237
O          1.80774       -1.02879       -1.32193
Hf         0.70161        0.02116        0.06218
C         -3.61730        0.18065       -0.10356
O         -4.35708        0.66775       -1.00058
O         -3.94491       -0.50068        0.88844
