12
Ti_int1    Gibbs Free energy (298.15 K) = -848.590851 Ha
O          1.87398        0.38079       -0.73862
O         -2.33651       -0.25538       -1.41220
O         -1.29821        1.94106       -0.32471
O         -0.83533       -0.91418        1.72192
O          0.71508       -0.45760       -0.90338
O         -1.65495       -1.50048       -1.05440
O         -0.26793        1.72990        0.69482
O         -2.15252       -0.29301        1.52026
Ti        -1.06866        0.07140       -0.00376
C          2.91364       -0.17305       -0.01761
O          3.90328        0.60993        0.02671
O          2.80670       -1.30759        0.49314
