12
Zr_int1    Gibbs Free energy (298.15 K) = -837.130709 Ha
O         -2.10368        0.61429       -0.18575
O          2.32160       -0.86584        1.34297
O          2.11344        1.76654       -0.20062
O          0.28977       -1.46461       -1.19959
O         -1.20666        0.13088        0.83760
O          1.13494       -0.42919        2.12886
O          0.68787        2.04798       -0.53692
O          1.60281       -0.91425       -1.64424
Zr         0.87460        0.06023        0.10494
C         -3.32728       -0.03432       -0.24704
O         -4.04776        0.44639       -1.16314
O         -3.59634       -0.95782        0.54692
