12
Hf_int2    Gibbs Free energy (298.15 K) = -839.485018 Ha
O         -2.42343        0.98134        0.95834
O          1.40261       -0.40086        1.71141
O          1.41183        1.66129       -0.43060
O          0.51227       -1.64165       -1.55503
O         -1.00224        1.15660        1.16247
O          0.40237       -1.49774        1.52814
O          0.39195        1.45876       -1.50596
O          1.88079       -1.21972       -1.13644
Hf         0.40004       -0.13661       -0.10186
C         -2.73064        0.03540        0.03628
O         -3.94977       -0.14482       -0.15674
O         -1.76910       -0.56682       -0.53451
