12
Mo_int2    Gibbs Free energy (298.15 K) = -857.673250 Ha
O         -2.25071        0.97936        0.94550
O          1.26597       -0.40015        1.61278
O          1.27027        1.56322       -0.42438
O          0.52278       -1.53016       -1.44477
O         -0.83599        1.08002        1.07917
O          0.30456       -1.43787        1.36059
O          0.30259        1.27688       -1.44644
O          1.78316       -1.04432       -0.97928
Mo         0.30133       -0.12588       -0.08804
C         -2.63225        0.03739        0.03936
O         -3.83299       -0.12079       -0.13334
O         -1.67203       -0.59252       -0.54566
