12
Ta_int2    Gibbs Free energy (298.15 K) = -848.266032 Ha
O         -2.31827        0.99399        0.93139
O          1.33400       -0.38058        1.63405
O          1.32129        1.58352       -0.41144
O          0.49656       -1.57737       -1.48647
O         -0.89807        1.09702        1.13950
O          0.33672       -1.45993        1.43840
O          0.28637        1.35520       -1.44750
O          1.83089       -1.11430       -1.05807
Ta         0.35564       -0.14360       -0.09648
C         -2.65799        0.04322        0.03000
O         -3.86605       -0.11796       -0.17419
O         -1.69440       -0.59407       -0.52368
