12
Ti_int2    Gibbs Free energy (298.15 K) = -848.577826 Ha
O         -2.34534        1.02362        0.90278
O          1.36337       -0.36437        1.60707
O          1.30058        1.55954       -0.41331
O          0.50833       -1.57424       -1.47313
O         -0.92862        1.08888        1.20376
O          0.40593       -1.45050        1.41166
O          0.25356        1.30530       -1.39974
O          1.82723       -1.10651       -1.06754
Ti         0.41106       -0.16064       -0.09327
C         -2.65988        0.05393        0.01159
O         -3.88853       -0.06449       -0.22458
O         -1.72099       -0.62536       -0.48980
