12
V_int2    Gibbs Free energy (298.15 K) = -861.630626 Ha
O         -2.19298        1.06662        0.83081
O          1.30533       -0.33741        1.53714
O          1.15291        1.52400       -0.44856
O          0.50888       -1.55349       -1.37175
O         -0.81378        0.93719        1.23757
O          0.42716       -1.44513        1.33692
O          0.05517        1.17924       -1.28647
O          1.73910       -0.94630       -1.01372
V          0.33451       -0.17413       -0.06464
C         -2.56500        0.08439       -0.02310
O         -3.77231        0.05070       -0.32533
O         -1.65227       -0.70049       -0.43337
