12
W_int2    Gibbs Free energy (298.15 K) = -858.036838 Ha
O         -2.25114        0.97845        0.94263
O          1.27342       -0.37799        1.59080
O          1.27759        1.54162       -0.40072
O          0.48626       -1.52618       -1.44222
O         -0.83320        1.08132        1.08435
O          0.27858       -1.42829        1.36717
O          0.27543        1.28558       -1.43604
O          1.78304       -1.05218       -0.98488
W          0.31222       -0.13199       -0.09401
C         -2.61924        0.03806        0.03877
O         -3.81302       -0.13739       -0.15174
O         -1.64326       -0.58584       -0.53863
